ITEM: TIMESTEP
0
ITEM: NUMBER OF ATOMS
100
ITEM: BOX BOUNDS pp pp pp
-10.0 10.0
-10.0 10.0
-10.0 10.0
ITEM: ATOMS id type x y z vx vy vz radius
1 1 -5.234 3.456 0.123 0.234 -0.456 0.789 0.50
2 1 2.345 -1.234 4.567 -0.123 0.345 -0.234 0.75
3 1 0.000 0.000 0.000 0.456 0.123 0.678 1.00
4 1 -3.456 2.345 -1.234 -0.234 -0.567 0.123 0.45
5 1 4.567 -3.456 2.345 0.345 0.234 -0.456 0.80
6 1 1.234 4.567 -3.456 -0.567 0.456 0.345 0.60
7 1 -2.345 -4.567 1.234 0.123 -0.345 -0.678 0.55
8 1 3.456 1.234 -2.345 0.234 0.567 0.234 0.90
9 1 -4.567 -2.345 3.456 -0.456 -0.234 0.456 0.70
10 1 2.345 3.456 4.567 0.678 0.123 -0.345 0.65